<?xml version="1.0" encoding="UTF-8"?>

<!-- generated on 2025-11-09 11:39:23 by Eclipse SUMO GUI Version 1.24.0
<sumoConfiguration xmlns:xsi="http://www.w3.org/2001/XMLSchema-instance" xsi:noNamespaceSchemaLocation="http://sumo.dlr.de/xsd/sumoConfiguration.xsd">

    <input>
        <net-file value="test.net.xml"/>
        <route-files value="svnit_traffic.rou.xml"/>
    </input>

    <output>
        <tripinfo-output value="tripinfo.xml"/>
    </output>

    <time>
        <begin value="0"/>
        <end value="10000"/>
    </time>

    <traci_server>
        <remote-port value="61500"/>
    </traci_server>

    <gui_only>
        <quit-on-end value="true"/>
        <start value="true"/>
        <delay value="100"/>
    </gui_only>

</sumoConfiguration>
-->

<tripinfos xmlns:xsi="http://www.w3.org/2001/XMLSchema-instance" xsi:noNamespaceSchemaLocation="http://sumo.dlr.de/xsd/tripinfo_file.xsd">
    <tripinfo id="flow_main_cars.0" depart="0.00" departLane="761955902#2_1" departPos="5.10" departSpeed="29.45" departDelay="0.00" arrival="40.00" arrivalLane="704227856#0_0" arrivalPos="193.98" arrivalSpeed="28.94" duration="40.00" routeLength="841.41" waitingTime="0.00" waitingCount="0" stopTime="0.00" timeLoss="9.65" rerouteNo="0" devices="tripinfo_flow_main_cars.0" vType="car" speedFactor="1.06" vaporized=""/>
    <tripinfo id="flow_main_cars.1" depart="9.00" departLane="761955902#2_1" departPos="5.10" departSpeed="30.08" departDelay="0.00" arrival="50.00" arrivalLane="704227856#0_0" arrivalPos="193.98" arrivalSpeed="25.81" duration="41.00" routeLength="841.41" waitingTime="0.00" waitingCount="0" stopTime="0.00" timeLoss="10.74" rerouteNo="0" devices="tripinfo_flow_main_cars.1" vType="car" speedFactor="1.08" vaporized=""/>
    <tripinfo id="flow_turning_bikes.0" depart="0.00" departLane="527057142_1" departPos="2.60" departSpeed="26.07" departDelay="0.00" arrival="53.00" arrivalLane="34135098#1_0" arrivalPos="591.70" arrivalSpeed="25.35" duration="53.00" routeLength="1074.36" waitingTime="0.00" waitingCount="0" stopTime="0.00" timeLoss="8.87" rerouteNo="0" devices="tripinfo_flow_turning_bikes.0" vType="motorcycle" speedFactor="0.94" vaporized=""/>
    <tripinfo id="flow_side_road_bikes.0" depart="1.00" departLane="761955902#2_1" departPos="2.60" departSpeed="28.07" departDelay="1.00" arrival="57.00" arrivalLane="1058767099_0" arrivalPos="517.67" arrivalSpeed="21.90" duration="56.00" routeLength="1136.75" waitingTime="0.00" waitingCount="0" stopTime="0.00" timeLoss="8.83" rerouteNo="0" devices="tripinfo_flow_side_road_bikes.0" vType="motorcycle" speedFactor="1.01" vaporized=""/>
    <tripinfo id="flow_side_road_bikes.1" depart="12.00" departLane="761955902#2_1" departPos="2.60" departSpeed="28.62" departDelay="0.00" arrival="66.00" arrivalLane="1058767099_0" arrivalPos="517.67" arrivalSpeed="21.23" duration="54.00" routeLength="1136.75" waitingTime="0.00" waitingCount="0" stopTime="0.00" timeLoss="8.15" rerouteNo="0" devices="tripinfo_flow_side_road_bikes.1" vType="motorcycle" speedFactor="1.03" vaporized=""/>
    <tripinfo id="flow_main_cars.2" depart="18.00" departLane="761955902#2_1" departPos="5.10" departSpeed="23.09" departDelay="0.00" arrival="66.00" arrivalLane="704227856#0_0" arrivalPos="193.98" arrivalSpeed="22.86" duration="48.00" routeLength="841.41" waitingTime="0.00" waitingCount="0" stopTime="0.00" timeLoss="9.25" rerouteNo="0" devices="tripinfo_flow_main_cars.2" vType="car" speedFactor="0.83" vaporized=""/>
    <tripinfo id="flow_turning_bikes.1" depart="18.00" departLane="527057142_1" departPos="2.60" departSpeed="29.05" departDelay="0.00" arrival="66.00" arrivalLane="34135098#1_0" arrivalPos="591.70" arrivalSpeed="27.80" duration="48.00" routeLength="1074.36" waitingTime="0.00" waitingCount="0" stopTime="0.00" timeLoss="8.61" rerouteNo="0" devices="tripinfo_flow_turning_bikes.1" vType="motorcycle" speedFactor="1.05" vaporized=""/>
    <tripinfo id="flow_main_cars.3" depart="27.00" departLane="761955902#2_1" departPos="5.10" departSpeed="26.05" departDelay="0.00" arrival="89.00" arrivalLane="704227856#0_0" arrivalPos="193.98" arrivalSpeed="24.82" duration="62.00" routeLength="841.41" waitingTime="12.00" waitingCount="1" stopTime="0.00" timeLoss="27.25" rerouteNo="0" devices="tripinfo_flow_main_cars.3" vType="car" speedFactor="0.94" vaporized=""/>
    <tripinfo id="flow_main_cars.4" depart="36.00" departLane="761955902#2_1" departPos="5.10" departSpeed="23.80" departDelay="0.00" arrival="92.00" arrivalLane="704227856#0_0" arrivalPos="193.98" arrivalSpeed="22.58" duration="56.00" routeLength="841.41" waitingTime="1.00" waitingCount="1" stopTime="0.00" timeLoss="18.35" rerouteNo="0" devices="tripinfo_flow_main_cars.4" vType="car" speedFactor="0.86" vaporized=""/>
    <tripinfo id="flow_side_road_bikes.2" depart="24.00" departLane="761955902#2_1" departPos="2.60" departSpeed="24.61" departDelay="0.00" arrival="100.00" arrivalLane="1058767099_0" arrivalPos="517.67" arrivalSpeed="19.45" duration="76.00" routeLength="1136.75" waitingTime="13.00" waitingCount="1" stopTime="0.00" timeLoss="23.15" rerouteNo="0" devices="tripinfo_flow_side_road_bikes.2" vType="motorcycle" speedFactor="0.89" vaporized=""/>
    <tripinfo id="flow_side_road_bikes.3" depart="37.00" departLane="761955902#2_1" departPos="2.60" departSpeed="22.06" departDelay="1.00" arrival="104.00" arrivalLane="1058767099_0" arrivalPos="517.67" arrivalSpeed="24.21" duration="67.00" routeLength="1136.75" waitingTime="0.00" waitingCount="0" stopTime="0.00" timeLoss="23.70" rerouteNo="0" devices="tripinfo_flow_side_road_bikes.3" vType="motorcycle" speedFactor="1.09" vaporized=""/>
    <tripinfo id="flow_main_cars.5" depart="45.00" departLane="761955902#2_1" departPos="5.10" departSpeed="29.09" departDelay="0.00" arrival="107.00" arrivalLane="704227856#0_0" arrivalPos="193.98" arrivalSpeed="28.55" duration="62.00" routeLength="841.41" waitingTime="9.00" waitingCount="1" stopTime="0.00" timeLoss="31.09" rerouteNo="0" devices="tripinfo_flow_main_cars.5" vType="car" speedFactor="1.05" vaporized=""/>
    <tripinfo id="flow_main_trucks.0" depart="50.00" departLane="761955902#2_1" departPos="12.10" departSpeed="26.87" departDelay="0.00" arrival="116.00" arrivalLane="704227856#0_0" arrivalPos="193.98" arrivalSpeed="22.33" duration="66.00" routeLength="834.41" waitingTime="6.00" waitingCount="1" stopTime="0.00" timeLoss="33.25" rerouteNo="0" devices="tripinfo_flow_main_trucks.0" vType="truck" speedFactor="1.00" vaporized=""/>
    <tripinfo id="flow_side_road_bikes.4" depart="48.00" departLane="761955902#2_1" departPos="2.60" departSpeed="31.19" departDelay="0.00" arrival="119.00" arrivalLane="1058767099_0" arrivalPos="517.67" arrivalSpeed="24.12" duration="71.00" routeLength="1136.75" waitingTime="6.00" waitingCount="1" stopTime="0.00" timeLoss="28.15" rerouteNo="0" devices="tripinfo_flow_side_road_bikes.4" vType="motorcycle" speedFactor="1.12" vaporized=""/>
    <tripinfo id="flow_turning_bikes.2" depart="36.00" departLane="527057142_1" departPos="2.60" departSpeed="28.51" departDelay="0.00" arrival="122.00" arrivalLane="34135098#1_0" arrivalPos="591.70" arrivalSpeed="26.80" duration="86.00" routeLength="1074.36" waitingTime="34.00" waitingCount="1" stopTime="0.00" timeLoss="46.36" rerouteNo="0" devices="tripinfo_flow_turning_bikes.2" vType="motorcycle" speedFactor="1.03" vaporized=""/>
    <tripinfo id="flow_main_cars.6" depart="54.00" departLane="761955902#2_1" departPos="5.10" departSpeed="25.63" departDelay="0.00" arrival="123.00" arrivalLane="704227856#0_0" arrivalPos="193.98" arrivalSpeed="25.77" duration="69.00" routeLength="841.41" waitingTime="5.00" waitingCount="1" stopTime="0.00" timeLoss="34.85" rerouteNo="0" devices="tripinfo_flow_main_cars.6" vType="car" speedFactor="0.94" vaporized=""/>
    <tripinfo id="flow_main_cars.7" depart="63.00" departLane="761955902#2_1" departPos="5.10" departSpeed="28.28" departDelay="0.00" arrival="126.00" arrivalLane="704227856#0_0" arrivalPos="193.98" arrivalSpeed="26.08" duration="63.00" routeLength="841.41" waitingTime="5.00" waitingCount="1" stopTime="0.00" timeLoss="31.33" rerouteNo="0" devices="tripinfo_flow_main_cars.7" vType="car" speedFactor="1.02" vaporized=""/>
    <tripinfo id="flow_turning_bikes.3" depart="54.00" departLane="527057142_1" departPos="2.60" departSpeed="26.01" departDelay="0.00" arrival="127.00" arrivalLane="34135098#1_0" arrivalPos="591.70" arrivalSpeed="24.30" duration="73.00" routeLength="1074.36" waitingTime="16.00" waitingCount="1" stopTime="0.00" timeLoss="28.16" rerouteNo="0" devices="tripinfo_flow_turning_bikes.3" vType="motorcycle" speedFactor="0.94" vaporized=""/>
    <tripinfo id="flow_main_cars.8" depart="72.00" departLane="761955902#2_1" departPos="5.10" departSpeed="28.06" departDelay="0.00" arrival="130.00" arrivalLane="704227856#0_0" arrivalPos="193.98" arrivalSpeed="27.86" duration="58.00" routeLength="841.41" waitingTime="3.00" waitingCount="1" stopTime="0.00" timeLoss="25.43" rerouteNo="0" devices="tripinfo_flow_main_cars.8" vType="car" speedFactor="1.01" vaporized=""/>
    <tripinfo id="flow_side_road_cars_1.0" depart="51.00" departLane="761955902#2_1" departPos="5.10" departSpeed="25.31" departDelay="1.00" arrival="131.00" arrivalLane="1058767099_0" arrivalPos="517.67" arrivalSpeed="20.30" duration="80.00" routeLength="1134.25" waitingTime="5.00" waitingCount="1" stopTime="0.00" timeLoss="28.58" rerouteNo="0" devices="tripinfo_flow_side_road_cars_1.0" vType="car" speedFactor="0.93" vaporized=""/>
    <tripinfo id="flow_turning_bikes.4" depart="72.00" departLane="527057142_1" departPos="2.60" departSpeed="24.71" departDelay="0.00" arrival="131.00" arrivalLane="34135098#1_0" arrivalPos="591.70" arrivalSpeed="23.09" duration="59.00" routeLength="1074.36" waitingTime="0.00" waitingCount="0" stopTime="0.00" timeLoss="12.19" rerouteNo="0" devices="tripinfo_flow_turning_bikes.4" vType="motorcycle" speedFactor="0.89" vaporized=""/>
    <tripinfo id="flow_side_road_cars_2.0" depart="52.00" departLane="761955902#2_1" departPos="5.10" departSpeed="23.61" departDelay="2.00" arrival="135.00" arrivalLane="1058767099_0" arrivalPos="517.67" arrivalSpeed="18.50" duration="83.00" routeLength="1134.25" waitingTime="5.00" waitingCount="1" stopTime="0.00" timeLoss="29.00" rerouteNo="0" devices="tripinfo_flow_side_road_cars_2.0" vType="car" speedFactor="0.88" vaporized=""/>
    <tripinfo id="flow_side_road_bikes.5" depart="60.00" departLane="761955902#2_1" departPos="2.60" departSpeed="32.17" departDelay="0.00" arrival="137.00" arrivalLane="1058767099_0" arrivalPos="517.67" arrivalSpeed="23.97" duration="77.00" routeLength="1136.75" waitingTime="4.00" waitingCount="1" stopTime="0.00" timeLoss="35.29" rerouteNo="0" devices="tripinfo_flow_side_road_bikes.5" vType="motorcycle" speedFactor="1.16" vaporized=""/>
    <tripinfo id="flow_main_cars.9" depart="81.00" departLane="761955902#2_1" departPos="5.10" departSpeed="25.48" departDelay="0.00" arrival="142.00" arrivalLane="704227856#0_0" arrivalPos="193.98" arrivalSpeed="25.17" duration="61.00" routeLength="841.41" waitingTime="0.00" waitingCount="0" stopTime="0.00" timeLoss="25.80" rerouteNo="0" devices="tripinfo_flow_main_cars.9" vType="car" speedFactor="0.92" vaporized=""/>
    <tripinfo id="flow_turning_bikes.5" depart="90.00" departLane="527057142_1" departPos="2.60" departSpeed="25.87" departDelay="0.00" arrival="143.00" arrivalLane="34135098#1_0" arrivalPos="591.70" arrivalSpeed="24.40" duration="53.00" routeLength="1074.36" waitingTime="0.00" waitingCount="0" stopTime="0.00" timeLoss="8.15" rerouteNo="0" devices="tripinfo_flow_turning_bikes.5" vType="motorcycle" speedFactor="0.93" vaporized=""/>
    <tripinfo id="flow_side_road_bikes.6" depart="73.00" departLane="761955902#2_1" departPos="2.60" departSpeed="26.58" departDelay="1.00" arrival="144.00" arrivalLane="1058767099_0" arrivalPos="517.67" arrivalSpeed="21.56" duration="71.00" routeLength="1136.75" waitingTime="0.00" waitingCount="0" stopTime="0.00" timeLoss="22.40" rerouteNo="0" devices="tripinfo_flow_side_road_bikes.6" vType="motorcycle" speedFactor="0.97" vaporized=""/>
    <tripinfo id="flow_main_cars.10" depart="90.00" departLane="761955902#2_1" departPos="5.10" departSpeed="31.44" departDelay="0.00" arrival="144.00" arrivalLane="704227856#0_0" arrivalPos="193.98" arrivalSpeed="28.43" duration="54.00" routeLength="841.41" waitingTime="0.00" waitingCount="0" stopTime="0.00" timeLoss="25.47" rerouteNo="0" devices="tripinfo_flow_main_cars.10" vType="car" speedFactor="1.13" vaporized=""/>
    <tripinfo id="flow_side_road_cars_1.1" depart="74.00" departLane="761955902#2_1" departPos="5.10" departSpeed="22.94" departDelay="0.00" arrival="152.00" arrivalLane="1058767099_0" arrivalPos="517.67" arrivalSpeed="17.72" duration="78.00" routeLength="1134.25" waitingTime="0.00" waitingCount="0" stopTime="0.00" timeLoss="21.01" rerouteNo="0" devices="tripinfo_flow_side_road_cars_1.1" vType="car" speedFactor="0.83" vaporized=""/>
    <tripinfo id="flow_side_road_cars_2.1" depart="75.00" departLane="761955902#2_1" departPos="5.10" departSpeed="20.23" departDelay="1.00" arrival="154.00" arrivalLane="1058767099_0" arrivalPos="517.67" arrivalSpeed="19.28" duration="79.00" routeLength="1134.25" waitingTime="0.00" waitingCount="0" stopTime="0.00" timeLoss="24.71" rerouteNo="0" devices="tripinfo_flow_side_road_cars_2.1" vType="car" speedFactor="0.87" vaporized=""/>
    <tripinfo id="flow_side_road_bikes.7" depart="84.00" departLane="761955902#2_1" departPos="2.60" departSpeed="26.36" departDelay="0.00" arrival="156.00" arrivalLane="1058767099_0" arrivalPos="517.67" arrivalSpeed="20.23" duration="72.00" routeLength="1136.75" waitingTime="0.00" waitingCount="0" stopTime="0.00" timeLoss="22.12" rerouteNo="0" devices="tripinfo_flow_side_road_bikes.7" vType="motorcycle" speedFactor="0.95" vaporized=""/>
    <tripinfo id="flow_turning_buses.0" depart="100.00" departLane="527057142_1" departPos="15.10" departSpeed="27.78" departDelay="0.00" arrival="156.00" arrivalLane="34135098#1_0" arrivalPos="591.70" arrivalSpeed="27.69" duration="56.00" routeLength="1061.86" waitingTime="0.00" waitingCount="0" stopTime="0.00" timeLoss="14.91" rerouteNo="0" devices="tripinfo_flow_turning_buses.0" vType="bus" speedFactor="1.00" vaporized=""/>
    <tripinfo id="flow_side_road_bikes.8" depart="96.00" departLane="761955902#2_1" departPos="2.60" departSpeed="32.74" departDelay="0.00" arrival="158.00" arrivalLane="1058767099_0" arrivalPos="517.67" arrivalSpeed="25.89" duration="62.00" routeLength="1136.75" waitingTime="0.00" waitingCount="0" stopTime="0.00" timeLoss="20.66" rerouteNo="0" devices="tripinfo_flow_side_road_bikes.8" vType="motorcycle" speedFactor="1.18" vaporized=""/>
    <tripinfo id="flow_turning_bikes.6" depart="108.00" departLane="527057142_1" departPos="2.60" departSpeed="27.04" departDelay="0.00" arrival="159.00" arrivalLane="34135098#1_1" arrivalPos="591.70" arrivalSpeed="26.35" duration="51.00" routeLength="1074.36" waitingTime="0.00" waitingCount="0" stopTime="0.00" timeLoss="8.46" rerouteNo="0" devices="tripinfo_flow_turning_bikes.6" vType="motorcycle" speedFactor="0.97" vaporized=""/>
    <tripinfo id="flow_main_cars.11" depart="100.00" departLane="761955902#2_1" departPos="5.10" departSpeed="26.39" departDelay="1.00" arrival="171.00" arrivalLane="704227856#0_0" arrivalPos="193.98" arrivalSpeed="27.13" duration="71.00" routeLength="841.41" waitingTime="12.00" waitingCount="1" stopTime="0.00" timeLoss="41.92" rerouteNo="0" devices="tripinfo_flow_main_cars.11" vType="car" speedFactor="1.17" vaporized=""/>
    <tripinfo id="flow_main_cars.12" depart="108.00" departLane="761955902#2_1" departPos="5.10" departSpeed="27.64" departDelay="0.00" arrival="174.00" arrivalLane="704227856#0_0" arrivalPos="193.98" arrivalSpeed="26.82" duration="66.00" routeLength="841.41" waitingTime="11.00" waitingCount="1" stopTime="0.00" timeLoss="32.72" rerouteNo="0" devices="tripinfo_flow_main_cars.12" vType="car" speedFactor="0.99" vaporized=""/>
    <tripinfo id="flow_side_road_cars_1.2" depart="98.00" departLane="761955902#2_1" departPos="5.10" departSpeed="32.07" departDelay="0.00" arrival="176.00" arrivalLane="1058767099_0" arrivalPos="517.67" arrivalSpeed="25.04" duration="78.00" routeLength="1134.25" waitingTime="12.00" waitingCount="1" stopTime="0.00" timeLoss="36.69" rerouteNo="0" devices="tripinfo_flow_side_road_cars_1.2" vType="car" speedFactor="1.15" vaporized=""/>
    <tripinfo id="flow_main_cars.13" depart="117.00" departLane="761955902#2_1" departPos="5.10" departSpeed="32.77" departDelay="0.00" arrival="177.00" arrivalLane="704227856#0_0" arrivalPos="193.98" arrivalSpeed="29.15" duration="60.00" routeLength="841.41" waitingTime="8.00" waitingCount="1" stopTime="0.00" timeLoss="31.88" rerouteNo="0" devices="tripinfo_flow_main_cars.13" vType="car" speedFactor="1.18" vaporized=""/>
    <tripinfo id="flow_side_road_cars_2.2" depart="99.00" departLane="761955902#2_1" departPos="5.10" departSpeed="27.92" departDelay="1.00" arrival="181.00" arrivalLane="1058767099_0" arrivalPos="517.67" arrivalSpeed="21.78" duration="82.00" routeLength="1134.25" waitingTime="12.00" waitingCount="1" stopTime="0.00" timeLoss="35.00" rerouteNo="0" devices="tripinfo_flow_side_road_cars_2.2" vType="car" speedFactor="1.01" vaporized=""/>
    <tripinfo id="flow_side_road_bikes.9" depart="109.00" departLane="761955902#2_1" departPos="2.60" departSpeed="25.85" departDelay="1.00" arrival="188.00" arrivalLane="1058767099_0" arrivalPos="517.67" arrivalSpeed="22.22" duration="79.00" routeLength="1136.75" waitingTime="10.00" waitingCount="1" stopTime="0.00" timeLoss="32.01" rerouteNo="0" devices="tripinfo_flow_side_road_bikes.9" vType="motorcycle" speedFactor="1.02" vaporized=""/>
    <tripinfo id="flow_side_road_bikes.10" depart="120.00" departLane="761955902#2_1" departPos="2.60" departSpeed="30.62" departDelay="0.00" arrival="190.00" arrivalLane="1058767099_0" arrivalPos="517.67" arrivalSpeed="24.41" duration="70.00" routeLength="1136.75" waitingTime="7.00" waitingCount="1" stopTime="0.00" timeLoss="27.87" rerouteNo="0" devices="tripinfo_flow_side_road_bikes.10" vType="motorcycle" speedFactor="1.10" vaporized=""/>
    <tripinfo id="flow_main_trucks.1" depart="122.00" departLane="761955902#2_1" departPos="12.10" departSpeed="26.32" departDelay="0.00" arrival="198.00" arrivalLane="704227856#0_0" arrivalPos="193.98" arrivalSpeed="20.85" duration="76.00" routeLength="834.41" waitingTime="11.00" waitingCount="2" stopTime="0.00" timeLoss="41.67" rerouteNo="0" devices="tripinfo_flow_main_trucks.1" vType="truck" speedFactor="0.95" vaporized=""/>
    <tripinfo id="flow_main_cars.14" depart="126.00" departLane="761955902#2_1" departPos="5.10" departSpeed="25.20" departDelay="0.00" arrival="202.00" arrivalLane="704227856#0_0" arrivalPos="193.98" arrivalSpeed="30.13" duration="76.00" routeLength="841.41" waitingTime="6.00" waitingCount="2" stopTime="0.00" timeLoss="45.90" rerouteNo="0" devices="tripinfo_flow_main_cars.14" vType="car" speedFactor="1.09" vaporized=""/>
    <tripinfo id="flow_main_cars.15" depart="135.00" departLane="761955902#2_1" departPos="5.10" departSpeed="30.22" departDelay="0.00" arrival="206.00" arrivalLane="704227856#0_0" arrivalPos="193.98" arrivalSpeed="27.48" duration="71.00" routeLength="841.41" waitingTime="2.00" waitingCount="1" stopTime="0.00" timeLoss="41.28" rerouteNo="0" devices="tripinfo_flow_main_cars.15" vType="car" speedFactor="1.09" vaporized=""/>
    <tripinfo id="flow_side_road_cars_1.3" depart="123.00" departLane="761955902#2_1" departPos="5.10" departSpeed="24.55" departDelay="1.00" arrival="208.00" arrivalLane="1058767099_0" arrivalPos="517.67" arrivalSpeed="22.39" duration="85.00" routeLength="1134.25" waitingTime="10.00" waitingCount="2" stopTime="0.00" timeLoss="39.47" rerouteNo="0" devices="tripinfo_flow_side_road_cars_1.3" vType="car" speedFactor="1.03" vaporized=""/>
    <tripinfo id="flow_main_cars.16" depart="144.00" departLane="761955902#2_1" departPos="5.10" departSpeed="27.71" departDelay="0.00" arrival="209.00" arrivalLane="704227856#0_0" arrivalPos="193.98" arrivalSpeed="27.64" duration="65.00" routeLength="841.41" waitingTime="2.00" waitingCount="2" stopTime="0.00" timeLoss="32.81" rerouteNo="0" devices="tripinfo_flow_main_cars.16" vType="car" speedFactor="1.00" vaporized=""/>
    <tripinfo id="flow_turning_bikes.7" depart="126.00" departLane="527057142_1" departPos="2.60" departSpeed="28.83" departDelay="0.00" arrival="212.00" arrivalLane="34135098#1_0" arrivalPos="591.70" arrivalSpeed="27.33" duration="86.00" routeLength="1074.36" waitingTime="33.00" waitingCount="1" stopTime="0.00" timeLoss="46.46" rerouteNo="0" devices="tripinfo_flow_turning_bikes.7" vType="motorcycle" speedFactor="1.04" vaporized=""/>
    <tripinfo id="flow_side_road_cars_2.3" depart="124.00" departLane="761955902#2_1" departPos="5.10" departSpeed="23.15" departDelay="2.00" arrival="213.00" arrivalLane="1058767099_0" arrivalPos="517.67" arrivalSpeed="21.01" duration="89.00" routeLength="1134.25" waitingTime="7.00" waitingCount="2" stopTime="0.00" timeLoss="38.97" rerouteNo="0" devices="tripinfo_flow_side_road_cars_2.3" vType="car" speedFactor="0.96" vaporized=""/>
    <tripinfo id="flow_side_road_bikes.11" depart="132.00" departLane="761955902#2_1" departPos="2.60" departSpeed="28.99" departDelay="0.00" arrival="216.00" arrivalLane="1058767099_0" arrivalPos="517.67" arrivalSpeed="22.45" duration="84.00" routeLength="1136.75" waitingTime="5.00" waitingCount="2" stopTime="0.00" timeLoss="38.40" rerouteNo="0" devices="tripinfo_flow_side_road_bikes.11" vType="motorcycle" speedFactor="1.04" vaporized=""/>
    <tripinfo id="flow_turning_bikes.9" depart="162.00" departLane="527057142_1" departPos="2.60" departSpeed="27.87" departDelay="0.00" arrival="216.00" arrivalLane="34135098#1_1" arrivalPos="591.70" arrivalSpeed="27.57" duration="54.00" routeLength="1074.36" waitingTime="0.00" waitingCount="0" stopTime="0.00" timeLoss="13.09" rerouteNo="0" devices="tripinfo_flow_turning_bikes.9" vType="motorcycle" speedFactor="1.00" vaporized=""/>
    <tripinfo id="flow_turning_bikes.8" depart="144.00" departLane="527057142_1" departPos="2.60" departSpeed="24.36" departDelay="0.00" arrival="217.00" arrivalLane="34135098#1_0" arrivalPos="591.70" arrivalSpeed="23.47" duration="73.00" routeLength="1074.36" waitingTime="16.00" waitingCount="1" stopTime="0.00" timeLoss="26.69" rerouteNo="0" devices="tripinfo_flow_turning_bikes.8" vType="motorcycle" speedFactor="0.88" vaporized=""/>
    <tripinfo id="flow_main_cars.17" depart="153.00" departLane="761955902#2_1" departPos="5.10" departSpeed="32.47" departDelay="0.00" arrival="221.00" arrivalLane="704227856#0_0" arrivalPos="193.98" arrivalSpeed="28.52" duration="68.00" routeLength="841.41" waitingTime="1.00" waitingCount="1" stopTime="0.00" timeLoss="39.69" rerouteNo="0" devices="tripinfo_flow_main_cars.17" vType="car" speedFactor="1.17" vaporized=""/>
    <tripinfo id="flow_main_cars.18" depart="162.00" departLane="761955902#2_1" departPos="5.10" departSpeed="30.44" departDelay="0.00" arrival="224.00" arrivalLane="704227856#0_0" arrivalPos="193.98" arrivalSpeed="28.62" duration="62.00" routeLength="841.41" waitingTime="0.00" waitingCount="0" stopTime="0.00" timeLoss="32.29" rerouteNo="0" devices="tripinfo_flow_main_cars.18" vType="car" speedFactor="1.10" vaporized=""/>
    <tripinfo id="flow_side_road_bikes.12" depart="145.00" departLane="761955902#2_1" departPos="2.60" departSpeed="25.02" departDelay="1.00" arrival="226.00" arrivalLane="1058767099_0" arrivalPos="517.67" arrivalSpeed="19.61" duration="81.00" routeLength="1136.75" waitingTime="1.00" waitingCount="1" stopTime="0.00" timeLoss="28.32" rerouteNo="0" devices="tripinfo_flow_side_road_bikes.12" vType="motorcycle" speedFactor="0.90" vaporized=""/>
    <tripinfo id="flow_turning_bikes.10" depart="180.00" departLane="527057142_1" departPos="2.60" departSpeed="31.09" departDelay="0.00" arrival="226.00" arrivalLane="34135098#1_1" arrivalPos="591.70" arrivalSpeed="30.00" duration="46.00" routeLength="1074.36" waitingTime="0.00" waitingCount="0" stopTime="0.00" timeLoss="8.47" rerouteNo="0" devices="tripinfo_flow_turning_bikes.10" vType="motorcycle" speedFactor="1.12" vaporized=""/>
    <tripinfo id="flow_side_road_cars_1.4" depart="146.00" departLane="761955902#2_1" departPos="5.10" departSpeed="21.24" departDelay="0.00" arrival="231.00" arrivalLane="1058767099_0" arrivalPos="517.67" arrivalSpeed="18.65" duration="85.00" routeLength="1134.25" waitingTime="1.00" waitingCount="1" stopTime="0.00" timeLoss="29.70" rerouteNo="0" devices="tripinfo_flow_side_road_cars_1.4" vType="car" speedFactor="0.85" vaporized=""/>
    <tripinfo id="flow_side_road_cars_2.4" depart="147.00" departLane="761955902#2_1" departPos="5.10" departSpeed="18.49" departDelay="1.00" arrival="235.00" arrivalLane="1058767099_0" arrivalPos="517.67" arrivalSpeed="18.04" duration="88.00" routeLength="1134.25" waitingTime="1.00" waitingCount="1" stopTime="0.00" timeLoss="32.49" rerouteNo="0" devices="tripinfo_flow_side_road_cars_2.4" vType="car" speedFactor="0.85" vaporized=""/>
    <tripinfo id="flow_main_cars.19" depart="172.00" departLane="761955902#2_1" departPos="5.10" departSpeed="20.91" departDelay="1.00" arrival="235.00" arrivalLane="704227856#0_0" arrivalPos="193.98" arrivalSpeed="25.96" duration="63.00" routeLength="841.41" waitingTime="0.00" waitingCount="0" stopTime="0.00" timeLoss="30.92" rerouteNo="0" devices="tripinfo_flow_main_cars.19" vType="car" speedFactor="1.02" vaporized=""/>
    <tripinfo id="flow_side_road_bikes.13" depart="156.00" departLane="761955902#2_1" departPos="2.60" departSpeed="28.25" departDelay="0.00" arrival="236.00" arrivalLane="1058767099_0" arrivalPos="517.67" arrivalSpeed="19.76" duration="80.00" routeLength="1136.75" waitingTime="0.00" waitingCount="0" stopTime="0.00" timeLoss="33.47" rerouteNo="0" devices="tripinfo_flow_side_road_bikes.13" vType="motorcycle" speedFactor="1.02" vaporized=""/>
    <tripinfo id="flow_main_cars.20" depart="180.00" departLane="761955902#2_1" departPos="5.10" departSpeed="26.93" departDelay="0.00" arrival="238.00" arrivalLane="704227856#0_0" arrivalPos="193.98" arrivalSpeed="26.92" duration="58.00" routeLength="841.41" waitingTime="0.00" waitingCount="0" stopTime="0.00" timeLoss="23.20" rerouteNo="0" devices="tripinfo_flow_main_cars.20" vType="car" speedFactor="0.97" vaporized=""/>
    <tripinfo id="flow_side_road_bikes.14" depart="168.00" departLane="761955902#2_1" departPos="2.60" departSpeed="27.67" departDelay="0.00" arrival="239.00" arrivalLane="1058767099_0" arrivalPos="517.67" arrivalSpeed="20.82" duration="71.00" routeLength="1136.75" waitingTime="0.00" waitingCount="0" stopTime="0.00" timeLoss="22.85" rerouteNo="0" devices="tripinfo_flow_side_road_bikes.14" vType="motorcycle" speedFactor="1.00" vaporized=""/>
    <tripinfo id="flow_main_cars.21" depart="189.00" departLane="761955902#2_1" departPos="5.10" departSpeed="28.22" departDelay="0.00" arrival="243.00" arrivalLane="704227856#0_0" arrivalPos="193.98" arrivalSpeed="27.74" duration="54.00" routeLength="841.41" waitingTime="0.00" waitingCount="0" stopTime="0.00" timeLoss="22.13" rerouteNo="0" devices="tripinfo_flow_main_cars.21" vType="car" speedFactor="1.02" vaporized=""/>
    <tripinfo id="flow_side_road_cars_1.5" depart="170.00" departLane="761955902#2_1" departPos="5.10" departSpeed="24.97" departDelay="0.00" arrival="245.00" arrivalLane="1058767099_0" arrivalPos="517.67" arrivalSpeed="19.82" duration="75.00" routeLength="1134.25" waitingTime="0.00" waitingCount="0" stopTime="0.00" timeLoss="22.66" rerouteNo="0" devices="tripinfo_flow_side_road_cars_1.5" vType="car" speedFactor="0.90" vaporized=""/>
    <tripinfo id="flow_side_road_cars_2.5" depart="171.00" departLane="761955902#2_1" departPos="5.10" departSpeed="22.93" departDelay="1.00" arrival="247.00" arrivalLane="1058767099_0" arrivalPos="517.67" arrivalSpeed="23.82" duration="76.00" routeLength="1134.25" waitingTime="0.00" waitingCount="0" stopTime="0.00" timeLoss="34.09" rerouteNo="0" devices="tripinfo_flow_side_road_cars_2.5" vType="car" speedFactor="1.14" vaporized=""/>
    <tripinfo id="flow_turning_bikes.11" depart="198.00" departLane="527057142_1" departPos="2.60" departSpeed="28.89" departDelay="0.00" arrival="247.00" arrivalLane="34135098#1_0" arrivalPos="591.70" arrivalSpeed="28.35" duration="49.00" routeLength="1074.36" waitingTime="0.00" waitingCount="0" stopTime="0.00" timeLoss="8.69" rerouteNo="0" devices="tripinfo_flow_turning_bikes.11" vType="motorcycle" speedFactor="1.04" vaporized=""/>
    <tripinfo id="flow_side_road_bikes.15" depart="181.00" departLane="761955902#2_1" departPos="2.60" departSpeed="25.42" departDelay="1.00" arrival="252.00" arrivalLane="1058767099_0" arrivalPos="517.67" arrivalSpeed="23.82" duration="71.00" routeLength="1136.75" waitingTime="0.00" waitingCount="0" stopTime="0.00" timeLoss="26.72" rerouteNo="0" devices="tripinfo_flow_side_road_bikes.15" vType="motorcycle" speedFactor="1.08" vaporized=""/>
    <tripinfo id="flow_main_trucks.2" depart="194.00" departLane="761955902#2_1" departPos="12.10" departSpeed="24.71" departDelay="0.00" arrival="268.00" arrivalLane="704227856#0_0" arrivalPos="193.98" arrivalSpeed="22.08" duration="74.00" routeLength="834.41" waitingTime="11.00" waitingCount="1" stopTime="0.00" timeLoss="39.85" rerouteNo="0" devices="tripinfo_flow_main_trucks.2" vType="truck" speedFactor="0.97" vaporized=""/>
    <tripinfo id="flow_side_road_bikes.16" depart="192.00" departLane="761955902#2_1" departPos="2.60" departSpeed="27.42" departDelay="0.00" arrival="274.00" arrivalLane="1058767099_0" arrivalPos="517.67" arrivalSpeed="21.63" duration="82.00" routeLength="1136.75" waitingTime="12.00" waitingCount="1" stopTime="0.00" timeLoss="33.56" rerouteNo="0" devices="tripinfo_flow_side_road_bikes.16" vType="motorcycle" speedFactor="0.99" vaporized=""/>